
Host: alia-MS-7A39

Timers On : Tue Apr  6 21:49:52 2021
Timers Off: Wed Apr  7 19:29:21 2021

Wall Time:    77969.89 seconds

                                                       Time (seconds)
Module                                       User      System        Wall        Calls

--------------------------------------------------------------------------------------

**************************************************************************************
